LAMMPS-data file (bcc_w_100.data) written from file_io.py

2 atoms
1 atom types

    0.000000     3.164917   xlo xhi
    0.000000     3.164917   ylo yhi
    0.000000     3.164917   zlo zhi
    0.000000     0.000000     0.000000   xy xz yz

Masses

1  183.840000

Atoms

    1   1     0.000000     0.000000     0.000000
    2   1     1.582459     1.582459     1.582459
